 argument  1 = tmp/74b44ff1-ada7-469c-ac64-57774001c210
                                         
                                         


             Northwest Computational Chemistry Package (NWChem) 7.0.0
             --------------------------------------------------------


                    Environmental Molecular Sciences Laboratory
                       Pacific Northwest National Laboratory
                                Richland, WA 99352

                              Copyright (c) 1994-2019
                       Pacific Northwest National Laboratory
                            Battelle Memorial Institute

             NWChem is an open-source computational chemistry package
                        distributed under the terms of the
                      Educational Community License (ECL) 2.0
             A copy of the license is included with this distribution
                              in the LICENSE.TXT file

                                  ACKNOWLEDGMENT
                                  --------------

            This software and its documentation were developed at the
            EMSL at Pacific Northwest National Laboratory, a multiprogram
            national laboratory, operated for the U.S. Department of Energy
            by Battelle under Contract Number DE-AC05-76RL01830. Support
            for this work was provided by the Department of Energy Office
            of Biological and Environmental Research, Office of Basic
            Energy Sciences, and the Office of Advanced Scientific Computing.


           Job information
           ---------------

    hostname        = copernico
    program         = /usr/bin/nwchem
    date            = Fri Feb 23 14:35:47 2024

    compiled        = Mon_Mar_09_19:57:00_2020
    source          = /build/nwchem-24Ysn1/nwchem-7.0.0
    nwchem branch   = 7.0.0
    nwchem revision = N/A
    ga revision     = 5.7.1
    use scalapack   = T
    input           = tmp/74b44ff1-ada7-469c-ac64-57774001c210
    prefix          = 74b44ff1-ada7-469c-ac64-57774001c210.
    data base       = ./74b44ff1-ada7-469c-ac64-57774001c210.db
    status          = startup
    nproc           =        4
    time left       =     -1s



           Memory information
           ------------------

    heap     =    8388604 doubles =     64.0 Mbytes
    stack    =    8388609 doubles =     64.0 Mbytes
    global   =   16777216 doubles =    128.0 Mbytes (distinct from heap & stack)
    total    =   33554429 doubles =    256.0 Mbytes
    verify   = yes
    hardfail = no 


           Directory information
           ---------------------

  0 permanent = .
  0 scratch   = .




                                NWChem Input Module
                                -------------------


                       74b44ff1-ada7-469c-ac64-57774001c210
                       ------------------------------------

 Scaling coordinates for geometry "geometry" by  1.889725989
 (inverse scale =  0.529177249)

 C1  symmetry detected

          ------
          auto-z
          ------
  no constraints, skipping    0.0000000000000000     
  no constraints, skipping    0.0000000000000000     


                             Geometry "geometry" -> ""
                             -------------------------

 Output coordinates in angstroms (scale by  1.889725989 to convert to a.u.)

  No.       Tag          Charge          X              Y              Z
 ---- ---------------- ---------- -------------- -------------- --------------
    1 O                    8.0000    -2.19563602     1.04123287     1.00084176
    2 C                    6.0000    -2.40368693    -0.16451263     0.28320807
    3 C                    6.0000    -1.37771655    -0.40417730    -0.82948044
    4 N                    7.0000    -0.01810417    -0.58909903    -0.33775846
    5 C                    6.0000     0.56146814    -1.80836392    -0.01579210
    6 C                    6.0000    -0.11348632    -3.11779205    -0.19421663
    7 N                    7.0000     1.79838493    -1.64922079     0.44902302
    8 C                    6.0000     2.04106359    -0.28674832     0.44698007
    9 C                    6.0000     0.92643933     0.39285873    -0.02567250
   10 N                    7.0000     0.74893607     1.74724649    -0.19359565
   11 O                    8.0000    -0.47998475     2.22332286    -0.52355133
   12 O                    8.0000     1.76276932     2.53903371     0.03766643
   13 H                    1.0000    -1.54609037     1.63922076     0.48340274
   14 H                    1.0000    -3.40297509    -0.18095323    -0.19251606
   15 H                    1.0000    -2.37166367    -1.00786307     0.99031520
   16 H                    1.0000    -1.65326605    -1.30070093    -1.39694510
   17 H                    1.0000    -1.36493263     0.46052478    -1.49547061
   18 H                    1.0000     0.57247421    -3.88961357     0.16182345
   19 H                    1.0000    -0.35447818    -3.33249718    -1.24554651
   20 H                    1.0000    -1.04890476    -3.19496949     0.37603189
   21 H                    1.0000     2.96364276     0.14806279     0.78540888

      Atomic Mass 
      ----------- 

      O                 15.994910
      C                 12.000000
      N                 14.003070
      H                  1.007825


 Effective nuclear repulsion energy (a.u.)     743.2961327739

            Nuclear Dipole moment (a.u.) 
            ----------------------------
        X                 Y               Z
 ---------------- ---------------- ----------------
     0.0000000000    -0.0000000000    -0.0000000000



                                Z-matrix (autoz)
                                -------- 

 Units are Angstrom for bonds and degrees for angles

      Type          Name      I     J     K     L     M      Value
      ----------- --------  ----- ----- ----- ----- ----- ----------
    1 Stretch                  1     2                       1.41849
    2 Stretch                  1    13                       1.02335
    3 Stretch                  2     3                       1.53236
    4 Stretch                  2    14                       1.10687
    5 Stretch                  2    15                       1.10103
    6 Stretch                  3     4                       1.45758
    7 Stretch                  3    16                       1.09622
    8 Stretch                  3    17                       1.09152
    9 Stretch                  4     5                       1.38787
   10 Stretch                  4     9                       1.39778
   11 Stretch                  5     6                       1.48391
   12 Stretch                  5     7                       1.33092
   13 Stretch                  6    18                       1.09225
   14 Stretch                  6    19                       1.09976
   15 Stretch                  6    20                       1.09825
   16 Stretch                  7     8                       1.38392
   17 Stretch                  8     9                       1.38840
   18 Stretch                  8    21                       1.07459
   19 Stretch                  9    10                       1.37625
   20 Stretch                 10    11                       1.35859
   21 Stretch                 10    12                       1.30701
   22 Bend                     1     2     3               113.70967
   23 Bend                     1     2    14               111.25254
   24 Bend                     1     2    15               108.77855
   25 Bend                     2     1    13               109.51138
   26 Bend                     2     3     4               113.54163
   27 Bend                     2     3    16               109.60281
   28 Bend                     2     3    17               109.08591
   29 Bend                     3     2    14               106.86117
   30 Bend                     3     2    15               109.09066
   31 Bend                     3     4     5               125.39788
   32 Bend                     3     4     9               128.06253
   33 Bend                     4     3    16               107.77894
   34 Bend                     4     3    17               107.18262
   35 Bend                     4     5     6               123.87474
   36 Bend                     4     5     7               111.35079
   37 Bend                     4     9     8               105.94009
   38 Bend                     4     9    10               125.23646
   39 Bend                     5     4     9               106.45017
   40 Bend                     5     6    18               107.37920
   41 Bend                     5     6    19               112.76106
   42 Bend                     5     6    20               112.76724
   43 Bend                     5     7     8               106.27074
   44 Bend                     6     5     7               124.76618
   45 Bend                     7     8     9               109.97614
   46 Bend                     7     8    21               123.26036
   47 Bend                     8     9    10               128.81395
   48 Bend                     9     8    21               126.75526
   49 Bend                     9    10    11               119.41629
   50 Bend                     9    10    12               118.32958
   51 Bend                    11    10    12               122.16397
   52 Bend                    14     2    15               106.91207
   53 Bend                    16     3    17               109.57150
   54 Bend                    18     6    19               108.13631
   55 Bend                    18     6    20               108.42118
   56 Bend                    19     6    20               107.21799
   57 Torsion                  1     2     3     4          64.58439
   58 Torsion                  1     2     3    16        -174.83702
   59 Torsion                  1     2     3    17         -54.86988
   60 Torsion                  2     3     4     5          91.31780
   61 Torsion                  2     3     4     9         -84.76874
   62 Torsion                  3     2     1    13          14.63074
   63 Torsion                  3     4     5     6           3.16619
   64 Torsion                  3     4     5     7        -177.83847
   65 Torsion                  3     4     9     8         177.75774
   66 Torsion                  3     4     9    10          -3.28128
   67 Torsion                  4     3     2    14        -172.26895
   68 Torsion                  4     3     2    15         -57.01959
   69 Torsion                  4     5     6    18        -178.81477
   70 Torsion                  4     5     6    19          62.17085
   71 Torsion                  4     5     6    20         -59.44463
   72 Torsion                  4     5     7     8           0.55953
   73 Torsion                  4     9     8     7          -0.78698
   74 Torsion                  4     9     8    21        -179.76262
   75 Torsion                  4     9    10    11           9.02266
   76 Torsion                  4     9    10    12        -174.35451
   77 Torsion                  5     4     3    16         -30.28410
   78 Torsion                  5     4     3    17        -148.14793
   79 Torsion                  5     4     9     8           1.08322
   80 Torsion                  5     4     9    10        -179.95580
   81 Torsion                  5     7     8     9           0.15740
   82 Torsion                  5     7     8    21         179.17591
   83 Torsion                  6     5     4     9         179.95429
   84 Torsion                  6     5     7     8         179.54414
   85 Torsion                  7     5     4     9          -1.05037
   86 Torsion                  7     5     6    18           2.32429
   87 Torsion                  7     5     6    19        -116.69009
   88 Torsion                  7     5     6    20         121.69443
   89 Torsion                  7     8     9    10        -179.69782
   90 Torsion                  8     9    10    11        -172.25958
   91 Torsion                  8     9    10    12           4.36325
   92 Torsion                  9     4     3    16         153.62936
   93 Torsion                  9     4     3    17          35.76552
   94 Torsion                 10     9     8    21           1.32654
   95 Torsion                 13     1     2    14        -106.08078
   96 Torsion                 13     1     2    15         136.40815
   97 Torsion                 14     2     3    16         -51.69035
   98 Torsion                 14     2     3    17          68.27679
   99 Torsion                 15     2     3    16          63.55900
  100 Torsion                 15     2     3    17        -176.47386


            XYZ format geometry
            -------------------
    21
 geometry
 O                    -2.19563602     1.04123287     1.00084176
 C                    -2.40368693    -0.16451263     0.28320807
 C                    -1.37771655    -0.40417730    -0.82948044
 N                    -0.01810417    -0.58909903    -0.33775846
 C                     0.56146814    -1.80836392    -0.01579210
 C                    -0.11348632    -3.11779205    -0.19421663
 N                     1.79838493    -1.64922079     0.44902302
 C                     2.04106359    -0.28674832     0.44698007
 C                     0.92643933     0.39285873    -0.02567250
 N                     0.74893607     1.74724649    -0.19359565
 O                    -0.47998475     2.22332286    -0.52355133
 O                     1.76276932     2.53903371     0.03766643
 H                    -1.54609037     1.63922076     0.48340274
 H                    -3.40297509    -0.18095323    -0.19251606
 H                    -2.37166367    -1.00786307     0.99031520
 H                    -1.65326605    -1.30070093    -1.39694510
 H                    -1.36493263     0.46052478    -1.49547061
 H                     0.57247421    -3.88961357     0.16182345
 H                    -0.35447818    -3.33249718    -1.24554651
 H                    -1.04890476    -3.19496949     0.37603189
 H                     2.96364276     0.14806279     0.78540888

 ==============================================================================
                                internuclear distances
 ------------------------------------------------------------------------------
       center one      |      center two      | atomic units |  angstroms
 ------------------------------------------------------------------------------
    2 C                |   1 O                |     2.68055  |     1.41849
    3 C                |   2 C                |     2.89574  |     1.53236
    4 N                |   3 C                |     2.75442  |     1.45758
    5 C                |   4 N                |     2.62269  |     1.38787
    6 C                |   5 C                |     2.80419  |     1.48391
    7 N                |   5 C                |     2.51507  |     1.33092
    8 C                |   7 N                |     2.61523  |     1.38392
    9 C                |   4 N                |     2.64143  |     1.39778
    9 C                |   8 C                |     2.62369  |     1.38840
   10 N                |   9 C                |     2.60074  |     1.37625
   11 O                |  10 N                |     2.56736  |     1.35859
   12 O                |  10 N                |     2.46988  |     1.30701
   13 H                |   1 O                |     1.93385  |     1.02335
   14 H                |   2 C                |     2.09168  |     1.10687
   15 H                |   2 C                |     2.08064  |     1.10103
   16 H                |   3 C                |     2.07156  |     1.09622
   17 H                |   3 C                |     2.06267  |     1.09152
   18 H                |   6 C                |     2.06406  |     1.09225
   19 H                |   6 C                |     2.07824  |     1.09976
   20 H                |   6 C                |     2.07539  |     1.09825
   21 H                |   8 C                |     2.03068  |     1.07459
 ------------------------------------------------------------------------------
                         number of included internuclear distances:         21
 ==============================================================================



 ==============================================================================
                                 internuclear angles
 ------------------------------------------------------------------------------
        center 1       |       center 2       |       center 3       |  degrees
 ------------------------------------------------------------------------------
    2 C                |   1 O                |  13 H                |   109.51
    1 O                |   2 C                |   3 C                |   113.71
    1 O                |   2 C                |  14 H                |   111.25
    1 O                |   2 C                |  15 H                |   108.78
    3 C                |   2 C                |  14 H                |   106.86
    3 C                |   2 C                |  15 H                |   109.09
   14 H                |   2 C                |  15 H                |   106.91
    2 C                |   3 C                |   4 N                |   113.54
    2 C                |   3 C                |  16 H                |   109.60
    2 C                |   3 C                |  17 H                |   109.09
    4 N                |   3 C                |  16 H                |   107.78
    4 N                |   3 C                |  17 H                |   107.18
   16 H                |   3 C                |  17 H                |   109.57
    3 C                |   4 N                |   5 C                |   125.40
    3 C                |   4 N                |   9 C                |   128.06
    5 C                |   4 N                |   9 C                |   106.45
    4 N                |   5 C                |   6 C                |   123.87
    4 N                |   5 C                |   7 N                |   111.35
    6 C                |   5 C                |   7 N                |   124.77
    5 C                |   6 C                |  18 H                |   107.38
    5 C                |   6 C                |  19 H                |   112.76
    5 C                |   6 C                |  20 H                |   112.77
   18 H                |   6 C                |  19 H                |   108.14
   18 H                |   6 C                |  20 H                |   108.42
   19 H                |   6 C                |  20 H                |   107.22
    5 C                |   7 N                |   8 C                |   106.27
    7 N                |   8 C                |   9 C                |   109.98
    7 N                |   8 C                |  21 H                |   123.26
    9 C                |   8 C                |  21 H                |   126.76
    4 N                |   9 C                |   8 C                |   105.94
    4 N                |   9 C                |  10 N                |   125.24
    8 C                |   9 C                |  10 N                |   128.81
    9 C                |  10 N                |  11 O                |   119.42
    9 C                |  10 N                |  12 O                |   118.33
   11 O                |  10 N                |  12 O                |   122.16
 ------------------------------------------------------------------------------
                            number of included internuclear angles:         35
 ==============================================================================





 Summary of "ao basis" -> "" (cartesian)
 ------------------------------------------------------------------------------
       Tag                 Description            Shells   Functions and Types
 ---------------- ------------------------------  ------  ---------------------
 *                           6-31G                    on all atoms 




                   NWChem Nuclear Hessian and Frequency Analysis
                   ---------------------------------------------

 COSMO detected


                         NWChem Finite-difference Hessian
                         --------------------------------



                                 NWChem DFT Module
                                 -----------------


                       74b44ff1-ada7-469c-ac64-57774001c210


                      Basis "ao basis" -> "ao basis" (cartesian)
                      -----
  O (Oxygen)
  ----------
            Exponent  Coefficients 
       -------------- ---------------------------------------------------------
  1 S  5.48467170E+03  0.001831
  1 S  8.25234950E+02  0.013950
  1 S  1.88046960E+02  0.068445
  1 S  5.29645000E+01  0.232714
  1 S  1.68975700E+01  0.470193
  1 S  5.79963530E+00  0.358521

  2 S  1.55396160E+01 -0.110778
  2 S  3.59993360E+00 -0.148026
  2 S  1.01376180E+00  1.130767

  3 P  1.55396160E+01  0.070874
  3 P  3.59993360E+00  0.339753
  3 P  1.01376180E+00  0.727159

  4 S  2.70005800E-01  1.000000

  5 P  2.70005800E-01  1.000000

  C (Carbon)
  ----------
            Exponent  Coefficients 
       -------------- ---------------------------------------------------------
  1 S  3.04752490E+03  0.001835
  1 S  4.57369510E+02  0.014037
  1 S  1.03948690E+02  0.068843
  1 S  2.92101550E+01  0.232184
  1 S  9.28666300E+00  0.467941
  1 S  3.16392700E+00  0.362312

  2 S  7.86827240E+00 -0.119332
  2 S  1.88128850E+00 -0.160854
  2 S  5.44249300E-01  1.143456

  3 P  7.86827240E+00  0.068999
  3 P  1.88128850E+00  0.316424
  3 P  5.44249300E-01  0.744308

  4 S  1.68714400E-01  1.000000

  5 P  1.68714400E-01  1.000000

  N (Nitrogen)
  ------------
            Exponent  Coefficients 
       -------------- ---------------------------------------------------------
  1 S  4.17351100E+03  0.001835
  1 S  6.27457900E+02  0.013995
  1 S  1.42902100E+02  0.068587
  1 S  4.02343300E+01  0.232241
  1 S  1.28202100E+01  0.469070
  1 S  4.39043700E+00  0.360455

  2 S  1.16263580E+01 -0.114961
  2 S  2.71628000E+00 -0.169118
  2 S  7.72218000E-01  1.145852

  3 P  1.16263580E+01  0.067580
  3 P  2.71628000E+00  0.323907
  3 P  7.72218000E-01  0.740895

  4 S  2.12031300E-01  1.000000

  5 P  2.12031300E-01  1.000000

  H (Hydrogen)
  ------------
            Exponent  Coefficients 
       -------------- ---------------------------------------------------------
  1 S  1.87311370E+01  0.033495
  1 S  2.82539370E+00  0.234727
  1 S  6.40121700E-01  0.813757

  2 S  1.61277800E-01  1.000000



 Summary of "ao basis" -> "ao basis" (cartesian)
 ------------------------------------------------------------------------------
       Tag                 Description            Shells   Functions and Types
 ---------------- ------------------------------  ------  ---------------------
 O                           6-31G                   5        9   3s2p
 C                           6-31G                   5        9   3s2p
 N                           6-31G                   5        9   3s2p
 H                           6-31G                   2        2   2s




 Summary of "ao basis" -> "ao basis" (cartesian)
 ------------------------------------------------------------------------------
       Tag                 Description            Shells   Functions and Types
 ---------------- ------------------------------  ------  ---------------------
 O                           6-31G                   5        9   3s2p
 C                           6-31G                   5        9   3s2p
 N                           6-31G                   5        9   3s2p
 H                           6-31G                   2        2   2s



 solvent parameters
 solvname_short: h2o     
 solvname_long:  water                              
 dielec:       78.4000
 dielecinf:     1.7769

          ---------------
          -cosmo- solvent
          ---------------
 Cosmo: York-Karplus, doi: 10.1021/jp992097l
 dielectric constant -eps-     =  78.40
 screen = (eps-1)/(eps    )    =   0.98724
 surface charge correction     = lagrangian
 -lineq- algorithm             =   0
 -bem- low  level              =   2
 -bem- from -octahedral-
 gaussian surface charge width =   0.98000
 degree of switching           =   1.00000
 switching function tolerance  =   0.00010
 atomic radii = 
 --------------
    1  8.000  1.720
    2  6.000  2.000
    3  6.000  2.000
    4  7.000  1.830
    5  6.000  2.000
    6  6.000  2.000
    7  7.000  1.830
    8  6.000  2.000
    9  6.000  2.000
   10  7.000  1.830
   11  8.000  1.720
   12  8.000  1.720
   13  1.000  1.300
   14  1.000  1.300
   15  1.000  1.300
   16  1.000  1.300
   17  1.000  1.300
   18  1.000  1.300
   19  1.000  1.300
   20  1.000  1.300
   21  1.000  1.300

 solvent accessible surface
 --------------------------

 ---------- ATOMIC COORDINATES (A.U.) ------------ VDWR(ANG.) --
     1   -4.14915044    1.96764482    1.89131668     1.720
     2   -4.54230965   -0.31088379    0.53518566     2.000
     3   -2.60350677   -0.76378436   -1.56749075     2.000
     4   -0.03421192   -1.11323576   -0.63827094     1.830
     5    1.06102093   -3.41731230   -0.02984274     2.000
     6   -0.21445805   -5.89177267   -0.36701622     2.000
     7    3.39845473   -3.11657540    0.84853047     1.830
     8    3.85705090   -0.54187575    0.84466986     2.000
     9    1.75071648    0.74239536   -0.04851399     2.000
    10    1.41528396    3.30181710   -0.36584273     1.830
    11   -0.90703965    4.20147098   -0.98936855     1.720
    12    3.33115100    4.79807798    0.07117923     1.720
    13   -2.92168716    3.09767807    0.91349872     1.300
    14   -6.43069046   -0.34195201   -0.36380261     1.300
    15   -4.48179448   -1.90458504    1.87142437     1.300
    16   -3.12421982   -2.45796834   -2.63984345     1.300
    17   -2.57934867    0.87026565   -2.82602968     1.300
    18    1.08181940   -7.35030385    0.30580199     1.300
    19   -0.66986662   -6.29750653   -2.35374161     1.300
    20   -1.98214258   -6.03761688    0.71059724     1.300
    21    5.60047274    0.27979811    1.48420757     1.300
 number of segments per atom =         32
 number of   points per atom =         32
 atom (   nspa,  nppa )
 ----------------------
    1 (     18,     0 )       0
    2 (     13,     0 )       0
    3 (     10,     0 )       0
    4 (      5,     0 )       0
    5 (      8,     0 )       0
    6 (     17,     0 )       0
    7 (     14,     0 )       0
    8 (     14,     0 )       0
    9 (      9,     0 )       0
   10 (     10,     0 )       0
   11 (     16,     0 )       0
   12 (     21,     0 )       0
   13 (      6,     0 )       0
   14 (     15,     0 )       0
   15 (     12,     0 )       0
   16 (     14,     0 )       0
   17 (     10,     0 )       0
   18 (     14,     0 )       0
   19 (     14,     0 )       0
   20 (     15,     0 )       0
   21 (     13,     0 )       0
 number of -cosmo- surface points =      268
 molecular surface =    199.654 angstrom**2
 molecular volume  =    114.811 angstrom**3
 G(cav/disp)       =      1.858 kcal/mol
 ...... end of -cosmo- initialization ......


  Caching 1-el integrals 

            General Information
            -------------------
          SCF calculation type: DFT
          Wavefunction type:  spin polarized.
          No. of atoms     :    21
          No. of electrons :    91
           Alpha electrons :    46
            Beta electrons :    45
          Charge           :    -1
          Spin multiplicity:     2
          Use of symmetry is: off; symmetry adaption is: off
          Maximum number of iterations: 200
          AO basis - number of functions:   126
                     number of shells:    78
          Convergence on energy requested:  1.00D-06
          Convergence on density requested:  1.00D-05
          Convergence on gradient requested:  5.00D-04

              XC Information
              --------------
                         PBE0 Method XC Functional
                     Hartree-Fock (Exact) Exchange  0.250          
          PerdewBurkeErnzerhof Exchange Functional  0.750          
            Perdew 1991 LDA Correlation Functional  1.000 local    
           PerdewBurkeErnz. Correlation Functional  1.000 non-local

             Grid Information
             ----------------
          Grid used for XC integration:  medium    
          Radial quadrature: Mura-Knowles        
          Angular quadrature: Lebedev. 
          Tag              B.-S. Rad. Rad. Pts. Rad. Cut. Ang. Pts.
          ---              ---------- --------- --------- ---------
          O                   0.60       49          13.0       434
          C                   0.70       49          12.0       434
          N                   0.65       49          13.0       434
          H                   0.35       45          13.0       434
          Grid pruning is: on 
          Number of quadrature shells:   993
          Spatial weights used:  Erf1

          Convergence Information
          -----------------------
          Convergence aids based upon iterative change in 
          total energy or number of iterations. 
          Levelshifting, if invoked, occurs when the 
          HOMO/LUMO gap drops below (HL_TOL):  1.00D-02
          DIIS, if invoked, will attempt to extrapolate 
          using up to (NFOCK): 10 stored Fock matrices.

                    Damping( 0%)  Levelshifting(0.5)       DIIS
                  --------------- ------------------- ---------------
          dE  on:    start            ASAP                start   
          dE off:    2 iters        200 iters           200 iters 


      Screening Tolerance Information
      -------------------------------
          Density screening/tol_rho:  1.00D-10
          AO Gaussian exp screening on grid/accAOfunc:  14
          CD Gaussian exp screening on grid/accCDfunc:  20
          XC Gaussian exp screening on grid/accXCfunc:  20
          Schwarz screening/accCoul:  1.00D-08


      Superposition of Atomic Density Guess
      -------------------------------------

 Sum of atomic energies:        -617.58988917

 Renormalizing density from      90.00 to     91

      Non-variational initial energy
      ------------------------------

 Total energy =    -628.701254
 1-e energy   =   -2345.136941
 2-e energy   =     973.139554
 HOMO         =       0.146419
 LUMO         =       0.292808

   Time after variat. SCF:      1.5
   Time prior to 1st pass:      1.5

 Integral file          = ./74b44ff1-ada7-469c-ac64-57774001c210.aoints.0
 Record size in doubles =  65536        No. of integs per rec  =  43688
 Max. records in memory =      0        Max. records in file   = 274108
 No. of bits per label  =      8        No. of bits per value  =     64


 #quartets = 2.901D+06 #integrals = 1.880D+07 #direct =  0.0% #cached =100.0%


File balance: exchanges=     4  moved=    16  time=   0.0


 Grid_pts file          = ./74b44ff1-ada7-469c-ac64-57774001c210.gridpts.0
 Record size in doubles =  12289        No. of grid_pts per rec  =   3070
 Max. records in memory =     40        Max. recs in file   =   1461250


           Memory utilization after 1st SCF pass: 
           Heap Space remaining (MW):        7.87             7866532
          Stack Space remaining (MW):        8.39             8386460

   convergence    iter        energy       DeltaE   RMS-Dens  Diis-err    time
 ---------------- ----- ----------------- --------- --------- ---------  ------
     COSMO gas phase
 d= 0,ls=0.0,diis     1   -622.5607439604 -1.37D+03  2.24D-02  8.66D-01     8.6
                                                     2.11D-02  8.50D-01
 d= 0,ls=0.0,diis     2   -621.1715219576  1.39D+00  1.74D-02  4.23D+00    12.0
                                                     1.62D-02  3.99D+00
 d= 0,ls=0.0,diis     3   -622.9273910915 -1.76D+00  3.66D-03  1.98D-01    15.6
                                                     4.25D-03  2.21D-01
 d= 0,ls=0.0,diis     4   -622.9949009787 -6.75D-02  1.66D-03  6.73D-02    19.2
                                                     1.65D-03  6.23D-02
 d= 0,ls=0.0,diis     5   -623.0187233226 -2.38D-02  6.23D-04  7.20D-03    23.0
                                                     5.46D-04  6.62D-03
  Resetting Diis
 d= 0,ls=0.0,diis     6   -623.0215614629 -2.84D-03  1.67D-04  6.89D-04    27.4
                                                     1.76D-04  6.10D-04
 d= 0,ls=0.0,diis     7   -623.0218313456 -2.70D-04  2.60D-04  1.44D-04    31.4
                                                     1.75D-04  7.83D-05
 d= 0,ls=0.0,diis     8   -623.0217746426  5.67D-05  1.08D-04  2.78D-04    35.5
                                                     1.37D-04  3.51D-04
 d= 0,ls=0.0,diis     9   -623.0219157027 -1.41D-04  3.22D-05  2.15D-05    39.8
                                                     2.81D-05  1.25D-05
 d= 0,ls=0.0,diis    10   -623.0219237817 -8.08D-06  3.92D-05  3.12D-06    43.9
                                                     3.20D-05  1.78D-06
 d= 0,ls=0.0,diis    11   -623.0219277950 -4.01D-06  1.28D-05  1.23D-06    48.2
                                                     1.00D-05  7.97D-07
 d= 0,ls=0.0,diis    12   -623.0219284001 -6.05D-07  2.19D-06  5.75D-08    52.4
                                                     1.98D-06  3.44D-08

           Memory utilization after 1st SCF pass: 
           Heap Space remaining (MW):        7.87             7865716
          Stack Space remaining (MW):        8.39             8386460

   convergence    iter        energy       DeltaE   RMS-Dens  Diis-err    time
 ---------------- ----- ----------------- --------- --------- ---------  ------
     COSMO solvation phase
 d= 0,ls=0.0,diis     1   -623.1192423071 -9.73D-02  2.43D-03  4.46D-03    57.2
                                                     2.27D-03  4.42D-03
 d= 0,ls=0.0,diis     2   -623.1260583979 -6.82D-03  4.69D-04  3.16D-03    62.1
                                                     4.65D-04  3.01D-03
 d= 0,ls=0.0,diis     3   -623.1271395428 -1.08D-03  2.51D-04  5.44D-04    67.3
                                                     2.45D-04  5.61D-04
 d= 0,ls=0.0,diis     4   -623.1274036480 -2.64D-04  9.57D-05  1.99D-04    72.7
                                                     9.27D-05  1.82D-04
 d= 0,ls=0.0,diis     5   -623.1274787700 -7.51D-05  3.31D-05  1.38D-05    77.6
                                                     4.38D-05  1.71D-05
 d= 0,ls=0.0,diis     6   -623.1274882844 -9.51D-06  2.47D-05  6.14D-06    82.7
                                                     1.82D-05  3.30D-06
 d= 0,ls=0.0,diis     7   -623.1274915898 -3.31D-06  8.08D-06  6.03D-07    87.7
                                                     1.51D-05  1.22D-06
 d= 0,ls=0.0,diis     8   -623.1274924492 -8.59D-07  7.67D-06  4.88D-07    92.6
                                                     5.54D-06  2.29D-07


         Total DFT energy =     -623.127492449245
      One electron energy =    -2353.804750533016
           Coulomb energy =     1055.925805742331
    Exchange-Corr. energy =      -81.996633084945
 Nuclear repulsion energy =      743.296132773889

             COSMO energy =       13.451952652495

 Numeric. integr. density =       90.999957321376

     Total iterative time =     91.2s


                                   COSMO solvation results
                                   -----------------------

                 gas phase energy =      -623.021928400129
                 sol phase energy =      -623.127492449245
 (electrostatic) solvation energy =         0.105564049117 (   66.24 kcal/mol)

                    DFT Final Alpha Molecular Orbital Analysis
                    ------------------------------------------

 Vector    1  Occ=1.000000D+00  E=-1.919721D+01
              MO Center=  1.8D+00,  2.5D+00,  3.8D-02, r^2= 1.6D-02
   Bfn.  Coefficient  Atom+Function         Bfn.  Coefficient  Atom+Function  
  ----- ------------  ---------------      ----- ------------  ---------------
   100      0.995128  12 O  s               101      0.028152  12 O  s         

 Vector    2  Occ=1.000000D+00  E=-1.919551D+01
              MO Center= -4.8D-01,  2.2D+00, -5.2D-01, r^2= 1.6D-02
   Bfn.  Coefficient  Atom+Function         Bfn.  Coefficient  Atom+Function  
  ----- ------------  ---------------      ----- ------------  ---------------
    91      0.995160  11 O  s                92      0.028391  11 O  s         

 Vector    3  Occ=1.000000D+00  E=-1.918544D+01
              MO Center= -2.2D+00,  1.0D+00,  1.0D+00, r^2= 1.5D-02
   Bfn.  Coefficient  Atom+Function         Bfn.  Coefficient  Atom+Function  
  ----- ------------  ---------------      ----- ------------  ---------------
     1      0.995222   1 O  s                 2      0.028723   1 O  s         

 Vector    4  Occ=1.000000D+00  E=-1.453328D+01
              MO Center=  7.5D-01,  1.7D+00, -1.9D-01, r^2= 2.0D-02
   Bfn.  Coefficient  Atom+Function         Bfn.  Coefficient  Atom+Function  
  ----- ------------  ---------------      ----- ------------  ---------------
    82      0.995474  10 N  s                87     -0.037169  10 N  s         
    83      0.032972  10 N  s                80      0.026459   9 C  py        

 Vector    5  Occ=1.000000D+00  E=-1.446140D+01
              MO Center= -1.8D-02, -5.9D-01, -3.4D-01, r^2= 2.0D-02
   Bfn.  Coefficient  Atom+Function         Bfn.  Coefficient  Atom+Function  
  ----- ------------  ---------------      ----- ------------  ---------------
    28      0.995573   4 N  s                33     -0.038625   4 N  s         
    29      0.033644   4 N  s         

 Vector    6  Occ=1.000000D+00  E=-1.438840D+01
              MO Center=  1.8D+00, -1.6D+00,  4.5D-01, r^2= 2.0D-02
   Bfn.  Coefficient  Atom+Function         Bfn.  Coefficient  Atom+Function  
  ----- ------------  ---------------      ----- ------------  ---------------
    55      0.995586   7 N  s                60     -0.037151   7 N  s         
    56      0.032977   7 N  s         

 Vector    7  Occ=1.000000D+00  E=-1.030155D+01
              MO Center=  9.3D-01,  3.9D-01, -2.6D-02, r^2= 2.8D-02
   Bfn.  Coefficient  Atom+Function         Bfn.  Coefficient  Atom+Function  
  ----- ------------  ---------------      ----- ------------  ---------------
    73      0.995260   9 C  s                74      0.034396   9 C  s         

 Vector    8  Occ=1.000000D+00  E=-1.030018D+01
              MO Center=  5.6D-01, -1.8D+00, -1.6D-02, r^2= 2.8D-02
   Bfn.  Coefficient  Atom+Function         Bfn.  Coefficient  Atom+Function  
  ----- ------------  ---------------      ----- ------------  ---------------
    37      0.995206   5 C  s                38      0.033947   5 C  s         

 Vector    9  Occ=1.000000D+00  E=-1.026858D+01
              MO Center= -2.4D+00, -1.6D-01,  2.8D-01, r^2= 3.0D-02
   Bfn.  Coefficient  Atom+Function         Bfn.  Coefficient  Atom+Function  
  ----- ------------  ---------------      ----- ------------  ---------------
    10      0.994981   2 C  s                11      0.035536   2 C  s         
    19      0.031507   3 C  s                15     -0.030553   2 C  s         

 Vector   10  Occ=1.000000D+00  E=-1.026607D+01
              MO Center= -1.4D+00, -4.0D-01, -8.3D-01, r^2= 3.0D-02
   Bfn.  Coefficient  Atom+Function         Bfn.  Coefficient  Atom+Function  
  ----- ------------  ---------------      ----- ------------  ---------------
    19      0.995064   3 C  s                20      0.037185   3 C  s         
    24     -0.033880   3 C  s                10     -0.031623   2 C  s         

 Vector   11  Occ=1.000000D+00  E=-1.024854D+01
              MO Center=  2.0D+00, -2.9D-01,  4.5D-01, r^2= 2.8D-02
   Bfn.  Coefficient  Atom+Function         Bfn.  Coefficient  Atom+Function  
  ----- ------------  ---------------      ----- ------------  ---------------
    64      0.995217   8 C  s                65      0.034661   8 C  s         
    69     -0.026121   8 C  s         

 Vector   12  Occ=1.000000D+00  E=-1.022855D+01
              MO Center= -1.1D-01, -3.1D+00, -1.9D-01, r^2= 2.8D-02
   Bfn.  Coefficient  Atom+Function         Bfn.  Coefficient  Atom+Function  
  ----- ------------  ---------------      ----- ------------  ---------------
    46      0.995451   6 C  s                47      0.036513   6 C  s         
    51     -0.035119   6 C  s         

 Vector   13  Occ=1.000000D+00  E=-1.158684D+00
              MO Center=  8.0D-01,  2.0D+00, -1.8D-01, r^2= 1.1D+00
   Bfn.  Coefficient  Atom+Function         Bfn.  Coefficient  Atom+Function  
  ----- ------------  ---------------      ----- ------------  ---------------
    83      0.342296  10 N  s                87      0.334960  10 N  s         
   101      0.248863  12 O  s               105      0.224154  12 O  s         
    92      0.196733  11 O  s                96      0.177534  11 O  s         
    82     -0.159932  10 N  s                80     -0.143905   9 C  py        
   100     -0.113364  12 O  s               102     -0.096803  12 O  px        

 Vector   14  Occ=1.000000D+00  E=-1.060293D+00
              MO Center=  6.1D-01, -7.2D-01, -3.6D-02, r^2= 1.9D+00
   Bfn.  Coefficient  Atom+Function         Bfn.  Coefficient  Atom+Function  
  ----- ------------  ---------------      ----- ------------  ---------------
    33      0.334472   4 N  s                29      0.276114   4 N  s         
    38      0.196448   5 C  s                60      0.196545   7 N  s         
    56      0.170355   7 N  s                28     -0.138223   4 N  s         
    74      0.133890   9 C  s                65      0.108758   8 C  s         
    37     -0.097095   5 C  s                40      0.092124   5 C  py        

 Vector   15  Occ=1.000000D+00  E=-1.025540D+00
              MO Center= -1.8D+00,  8.9D-01,  6.7D-01, r^2= 1.9D+00
   Bfn.  Coefficient  Atom+Function         Bfn.  Coefficient  Atom+Function  
  ----- ------------  ---------------      ----- ------------  ---------------
     6      0.447744   1 O  s                 2      0.402711   1 O  s         
     1     -0.188267   1 O  s                11      0.149963   2 C  s         
   109      0.109119  13 H  s                 5     -0.097521   1 O  pz        
    96      0.096050  11 O  s                92      0.091956  11 O  s         
    13      0.087296   2 C  py               10     -0.077585   2 C  s         

 Vector   16  Occ=1.000000D+00  E=-9.903698D-01
              MO Center=  3.0D-01,  2.0D+00, -1.7D-01, r^2= 2.2D+00
   Bfn.  Coefficient  Atom+Function         Bfn.  Coefficient  Atom+Function  
  ----- ------------  ---------------      ----- ------------  ---------------
    96      0.340400  11 O  s                92      0.328883  11 O  s         
   101     -0.288054  12 O  s               105     -0.288012  12 O  s         
    84     -0.246858  10 N  px               91     -0.149825  11 O  s         
     6     -0.145400   1 O  s                 2     -0.129213   1 O  s         
   100      0.128803  12 O  s                93      0.085491  11 O  px        

 Vector   17  Occ=1.000000D+00  E=-9.234947D-01
              MO Center=  6.7D-01, -8.8D-01, -3.2D-03, r^2= 2.6D+00
   Bfn.  Coefficient  Atom+Function         Bfn.  Coefficient  Atom+Function  
  ----- ------------  ---------------      ----- ------------  ---------------
    60     -0.350708   7 N  s                33      0.332875   4 N  s         
    56     -0.277744   7 N  s                29      0.251015   4 N  s         
    39     -0.141678   5 C  px               20      0.137196   3 C  s         
    55      0.137410   7 N  s                65     -0.135279   8 C  s         
    28     -0.121028   4 N  s                24      0.094646   3 C  s         

 Vector   18  Occ=1.000000D+00  E=-8.391225D-01
              MO Center=  6.3D-01,  1.8D-01, -1.1D-01, r^2= 3.8D+00
   Bfn.  Coefficient  Atom+Function         Bfn.  Coefficient  Atom+Function  
  ----- ------------  ---------------      ----- ------------  ---------------
    74      0.277567   9 C  s                85     -0.221507  10 N  py        
    87      0.181274  10 N  s                38     -0.162777   5 C  s         
   105     -0.163555  12 O  s                96     -0.157308  11 O  s         
   101     -0.144969  12 O  s                73     -0.133401   9 C  s         
    65      0.132303   8 C  s                92     -0.132760  11 O  s         

 Vector   19  Occ=1.000000D+00  E=-7.735272D-01
              MO Center= -1.7D-01, -1.4D+00, -1.7D-01, r^2= 4.9D+00
   Bfn.  Coefficient  Atom+Function         Bfn.  Coefficient  Atom+Function  
  ----- ------------  ---------------      ----- ------------  ---------------
    47      0.240718   6 C  s                51      0.224167   6 C  s         
    20     -0.183409   3 C  s                38      0.165594   5 C  s         
    24     -0.160576   3 C  s                46     -0.126943   6 C  s         
    60     -0.111201   7 N  s                65     -0.111542   8 C  s         
    87      0.111631  10 N  s                11     -0.108902   2 C  s         

 Vector   20  Occ=1.000000D+00  E=-7.629772D-01
              MO Center= -4.9D-01, -3.8D-01, -2.1D-01, r^2= 5.0D+00
   Bfn.  Coefficient  Atom+Function         Bfn.  Coefficient  Atom+Function  
  ----- ------------  ---------------      ----- ------------  ---------------
    33     -0.205704   4 N  s                20      0.196999   3 C  s         
    87      0.185378  10 N  s                76      0.179844   9 C  py        
    24      0.172144   3 C  s                11      0.159606   2 C  s         
    15      0.152330   2 C  s                85     -0.148309  10 N  py        
    47      0.146466   6 C  s                30     -0.140487   4 N  px        

 Vector   21  Occ=1.000000D+00  E=-6.873914D-01
              MO Center=  9.8D-01, -8.0D-01,  9.0D-02, r^2= 4.9D+00
   Bfn.  Coefficient  Atom+Function         Bfn.  Coefficient  Atom+Function  
  ----- ------------  ---------------      ----- ------------  ---------------
    69      0.268961   8 C  s                65      0.254281   8 C  s         
    51      0.242725   6 C  s                87     -0.233758  10 N  s         
    47      0.184984   6 C  s                60     -0.163658   7 N  s         
    76     -0.163124   9 C  py               96      0.162492  11 O  s         
    83     -0.142702  10 N  s                39     -0.130932   5 C  px        

 Vector   22  Occ=1.000000D+00  E=-6.607660D-01
              MO Center= -1.5D+00, -1.7D-01,  1.1D-01, r^2= 3.8D+00
   Bfn.  Coefficient  Atom+Function         Bfn.  Coefficient  Atom+Function  
  ----- ------------  ---------------      ----- ------------  ---------------
    15      0.316192   2 C  s                11      0.269961   2 C  s         
    30      0.183699   4 N  px                4     -0.157697   1 O  py        
     6     -0.141396   1 O  s                21     -0.141605   3 C  px        
    10     -0.137287   2 C  s                24     -0.135757   3 C  s         
    20     -0.126554   3 C  s               113      0.118324  15 H  s         

 Vector   23  Occ=1.000000D+00  E=-6.113526D-01
              MO Center=  5.0D-01, -5.7D-01, -1.3D-01, r^2= 3.8D+00
   Bfn.  Coefficient  Atom+Function         Bfn.  Coefficient  Atom+Function  
  ----- ------------  ---------------      ----- ------------  ---------------
    31      0.352507   4 N  py               35      0.203309   4 N  py        
    75     -0.183310   9 C  px               87     -0.182528  10 N  s         
   105      0.180814  12 O  s                39      0.173430   5 C  px        
    65     -0.130176   8 C  s                51      0.123309   6 C  s         
    76     -0.123541   9 C  py               69     -0.118745   8 C  s         

 Vector   24  Occ=1.000000D+00  E=-5.773903D-01
              MO Center=  7.3D-02, -2.4D-02, -4.5D-02, r^2= 5.8D+00
   Bfn.  Coefficient  Atom+Function         Bfn.  Coefficient  Atom+Function  
  ----- ------------  ---------------      ----- ------------  ---------------
    33      0.194497   4 N  s                96     -0.193588  11 O  s         
    67     -0.174332   8 C  py               24     -0.172298   3 C  s         
    93      0.155059  11 O  px               57      0.151342   7 N  px        
    21      0.136066   3 C  px               38     -0.136183   5 C  s         
    75     -0.132348   9 C  px               87      0.128843  10 N  s         

 Vector   25  Occ=1.000000D+00  E=-5.336905D-01
              MO Center=  4.4D-02,  5.2D-01, -2.7D-01, r^2= 5.6D+00
   Bfn.  Coefficient  Atom+Function         Bfn.  Coefficient  Atom+Function  
  ----- ------------  ---------------      ----- ------------  ---------------
    87      0.219971  10 N  s                85      0.209365  10 N  py        
    96     -0.202047  11 O  s               105     -0.201396  12 O  s         
    30      0.175575   4 N  px               24      0.173939   3 C  s         
    93      0.172283  11 O  px               23     -0.167287   3 C  pz        
    76     -0.148263   9 C  py              102     -0.141778  12 O  px        

 Vector   26  Occ=1.000000D+00  E=-5.188665D-01
              MO Center=  8.4D-02,  5.5D-01, -4.0D-02, r^2= 5.2D+00
   Bfn.  Coefficient  Atom+Function         Bfn.  Coefficient  Atom+Function  
  ----- ------------  ---------------      ----- ------------  ---------------
    86      0.272910  10 N  pz               32      0.180399   4 N  pz        
    90      0.161377  10 N  pz               95      0.152338  11 O  pz        
     4      0.143010   1 O  py               77      0.136531   9 C  pz        
    87      0.129429  10 N  s                 3      0.121671   1 O  px        
    96     -0.118228  11 O  s                36      0.112245   4 N  pz        

 Vector   27  Occ=1.000000D+00  E=-5.015853D-01
              MO Center=  4.3D-01, -1.1D-01,  1.3D-02, r^2= 5.9D+00
   Bfn.  Coefficient  Atom+Function         Bfn.  Coefficient  Atom+Function  
  ----- ------------  ---------------      ----- ------------  ---------------
    85      0.238457  10 N  py               67      0.211948   8 C  py        
   105     -0.175068  12 O  s                40     -0.154135   5 C  py        
    58     -0.151963   7 N  py              102     -0.146027  12 O  px        
    57     -0.136828   7 N  px               89      0.137422  10 N  py        
    30     -0.126529   4 N  px               76     -0.127123   9 C  py        

 Vector   28  Occ=1.000000D+00  E=-4.793787D-01
              MO Center=  1.2D-01,  6.0D-01, -4.2D-02, r^2= 6.3D+00
   Bfn.  Coefficient  Atom+Function         Bfn.  Coefficient  Atom+Function  
  ----- ------------  ---------------      ----- ------------  ---------------
    84      0.256936  10 N  px               96      0.186366  11 O  s         
   105     -0.180393  12 O  s                88      0.170289  10 N  px        
    66     -0.164847   8 C  px               86     -0.144096  10 N  pz        
   103     -0.134148  12 O  py               75      0.132115   9 C  px        
   104     -0.128534  12 O  pz               30     -0.126841   4 N  px        

 Vector   29  Occ=1.000000D+00  E=-4.746274D-01
              MO Center= -3.1D-01,  3.1D-01, -5.5D-02, r^2= 5.9D+00
   Bfn.  Coefficient  Atom+Function         Bfn.  Coefficient  Atom+Function  
  ----- ------------  ---------------      ----- ------------  ---------------
    86      0.259215  10 N  pz               14      0.180300   2 C  pz        
    90      0.165253  10 N  pz              104      0.164307  12 O  pz        
    22     -0.154530   3 C  py               23     -0.143173   3 C  pz        
    32     -0.137025   4 N  pz               66     -0.134122   8 C  px        
     4     -0.132820   1 O  py                3     -0.124145   1 O  px        

 Vector   30  Occ=1.000000D+00  E=-4.664855D-01
              MO Center=  1.1D-02,  1.1D+00, -1.8D-01, r^2= 6.3D+00
   Bfn.  Coefficient  Atom+Function         Bfn.  Coefficient  Atom+Function  
  ----- ------------  ---------------      ----- ------------  ---------------
   105     -0.270930  12 O  s                84      0.248501  10 N  px        
    86      0.199761  10 N  pz              103     -0.198074  12 O  py        
    93     -0.190358  11 O  px              102     -0.190736  12 O  px        
    96      0.173336  11 O  s                22      0.150912   3 C  py        
    88      0.137681  10 N  px               33      0.124889   4 N  s         

 Vector   31  Occ=1.000000D+00  E=-4.605210D-01
              MO Center= -9.0D-01, -3.1D-01,  1.2D-01, r^2= 5.6D+00
   Bfn.  Coefficient  Atom+Function         Bfn.  Coefficient  Atom+Function  
  ----- ------------  ---------------      ----- ------------  ---------------
     4      0.246156   1 O  py               13     -0.241205   2 C  py        
    22     -0.162898   3 C  py                8      0.144297   1 O  py        
    48      0.130090   6 C  px               40     -0.121221   5 C  py        
    32     -0.116776   4 N  pz               31      0.112870   4 N  py        
   109      0.110035  13 H  s               117     -0.109461  17 H  s         

 Vector   32  Occ=1.000000D+00  E=-4.410622D-01
              MO Center= -8.2D-01, -1.1D+00, -5.0D-02, r^2= 6.2D+00
   Bfn.  Coefficient  Atom+Function         Bfn.  Coefficient  Atom+Function  
  ----- ------------  ---------------      ----- ------------  ---------------
    12      0.247249   2 C  px               50     -0.246866   6 C  pz        
    41     -0.167131   5 C  pz               23      0.158345   3 C  pz        
   121      0.137948  19 H  s                 3      0.132686   1 O  px        
    59     -0.126928   7 N  pz               16      0.116630   2 C  px        
   111     -0.116460  14 H  s                54     -0.115559   6 C  pz        

 Vector   33  Occ=1.000000D+00  E=-4.200969D-01
              MO Center=  6.7D-01, -2.1D+00,  4.8D-02, r^2= 3.9D+00
   Bfn.  Coefficient  Atom+Function         Bfn.  Coefficient  Atom+Function  
  ----- ------------  ---------------      ----- ------------  ---------------
    49      0.369032   6 C  py               40     -0.275510   5 C  py        
    39     -0.206103   5 C  px              119     -0.171353  18 H  s         
    53      0.167805   6 C  py               67     -0.155378   8 C  py        
    57      0.154331   7 N  px               66     -0.143742   8 C  px        
   125     -0.129388  21 H  s               120     -0.128566  18 H  s         

 Vector   34  Occ=1.000000D+00  E=-4.149183D-01
              MO Center= -7.5D-01,  9.5D-03,  3.9D-02, r^2= 5.9D+00
   Bfn.  Coefficient  Atom+Function         Bfn.  Coefficient  Atom+Function  
  ----- ------------  ---------------      ----- ------------  ---------------
    30      0.251092   4 N  px               66      0.211325   8 C  px        
    34      0.183634   4 N  px               12      0.177603   2 C  px        
    75     -0.168969   9 C  px               14      0.167003   2 C  pz        
   111     -0.152064  14 H  s                21     -0.146424   3 C  px        
    23     -0.140799   3 C  pz                4     -0.125086   1 O  py        

 Vector   35  Occ=1.000000D+00  E=-4.026446D-01
              MO Center= -2.1D-01, -1.3D+00, -1.8D-01, r^2= 5.7D+00
   Bfn.  Coefficient  Atom+Function         Bfn.  Coefficient  Atom+Function  
  ----- ------------  ---------------      ----- ------------  ---------------
    50      0.263056   6 C  pz               32     -0.203225   4 N  pz        
   123      0.161474  20 H  s                54      0.151812   6 C  pz        
   121     -0.151806  19 H  s                68     -0.144451   8 C  pz        
    22      0.138675   3 C  py               36     -0.138427   4 N  pz        
    59     -0.130253   7 N  pz              124      0.120311  20 H  s         

 Vector   36  Occ=1.000000D+00  E=-3.997363D-01
              MO Center=  2.1D-01, -2.7D+00, -4.8D-02, r^2= 3.7D+00
   Bfn.  Coefficient  Atom+Function         Bfn.  Coefficient  Atom+Function  
  ----- ------------  ---------------      ----- ------------  ---------------
    48      0.353340   6 C  px              119      0.229088  18 H  s         
    52      0.179865   6 C  px              120      0.168279  18 H  s         
    57      0.157713   7 N  px               50      0.156676   6 C  pz        
    67     -0.157150   8 C  py               39     -0.144760   5 C  px        
   123     -0.139079  20 H  s               121     -0.137216  19 H  s         

 Vector   37  Occ=1.000000D+00  E=-3.838152D-01
              MO Center= -1.2D+00, -3.6D-01, -1.7D-01, r^2= 4.9D+00
   Bfn.  Coefficient  Atom+Function         Bfn.  Coefficient  Atom+Function  
  ----- ------------  ---------------      ----- ------------  ---------------
    22      0.247131   3 C  py               13     -0.197330   2 C  py        
   117      0.181848  17 H  s                 5      0.171264   1 O  pz        
   113      0.142102  15 H  s               118      0.139904  17 H  s         
     4      0.138768   1 O  py               26      0.129129   3 C  py        
   115     -0.124087  16 H  s                 9      0.121137   1 O  pz        

 Vector   38  Occ=1.000000D+00  E=-3.359765D-01
              MO Center= -1.1D+00,  6.2D-01,  4.4D-01, r^2= 5.2D+00
   Bfn.  Coefficient  Atom+Function         Bfn.  Coefficient  Atom+Function  
  ----- ------------  ---------------      ----- ------------  ---------------
     5      0.331405   1 O  pz                9      0.255536   1 O  pz        
     6      0.185132   1 O  s                 3     -0.179032   1 O  px        
    14     -0.172221   2 C  pz               23      0.155322   3 C  pz        
    59     -0.153841   7 N  pz               95     -0.151140  11 O  pz        
   104      0.146435  12 O  pz                7     -0.136917   1 O  px        

 Vector   39  Occ=1.000000D+00  E=-2.987773D-01
              MO Center=  6.8D-01,  1.1D+00, -3.7D-02, r^2= 5.2D+00
   Bfn.  Coefficient  Atom+Function         Bfn.  Coefficient  Atom+Function  
  ----- ------------  ---------------      ----- ------------  ---------------
   104      0.359586  12 O  pz               95     -0.307209  11 O  pz        
   108      0.275770  12 O  pz               99     -0.237775  11 O  pz        
    59      0.223087   7 N  pz               32     -0.217507   4 N  pz        
    36     -0.182306   4 N  pz               63      0.159164   7 N  pz        
    68      0.120143   8 C  pz                3      0.106734   1 O  px        

 Vector   40  Occ=1.000000D+00  E=-2.907861D-01
              MO Center=  7.3D-01,  6.8D-01, -2.3D-02, r^2= 6.3D+00
   Bfn.  Coefficient  Atom+Function         Bfn.  Coefficient  Atom+Function  
  ----- ------------  ---------------      ----- ------------  ---------------
    94      0.313246  11 O  py               78      0.291612   9 C  s         
    98      0.237062  11 O  py              103      0.219673  12 O  py        
    58     -0.199844   7 N  py              104     -0.199615  12 O  pz        
    95      0.191623  11 O  pz              107      0.174636  12 O  py        
    80      0.159976   9 C  py               62     -0.158284   7 N  py        

 Vector   41  Occ=1.000000D+00  E=-2.824881D-01
              MO Center=  8.4D-01, -5.8D-01,  1.4D-01, r^2= 5.5D+00
   Bfn.  Coefficient  Atom+Function         Bfn.  Coefficient  Atom+Function  
  ----- ------------  ---------------      ----- ------------  ---------------
    57      0.279101   7 N  px               58     -0.275881   7 N  py        
    61      0.220691   7 N  px               32      0.215515   4 N  pz        
    62     -0.201774   7 N  py               60      0.189942   7 N  s         
    95     -0.188020  11 O  pz               36      0.180992   4 N  pz        
    94     -0.177217  11 O  py               33      0.144820   4 N  s         

 Vector   42  Occ=1.000000D+00  E=-2.772584D-01
              MO Center=  9.4D-01,  1.4D+00,  7.4D-02, r^2= 5.3D+00
   Bfn.  Coefficient  Atom+Function         Bfn.  Coefficient  Atom+Function  
  ----- ------------  ---------------      ----- ------------  ---------------
   103      0.386974  12 O  py              107      0.290630  12 O  py        
   102     -0.243388  12 O  px               94      0.177666  11 O  py        
    59     -0.174655   7 N  pz              106     -0.173916  12 O  px        
    95     -0.163564  11 O  pz               98      0.160305  11 O  py        
     5     -0.149889   1 O  pz               78      0.149836   9 C  s         

 Vector   43  Occ=1.000000D+00  E=-2.620907D-01
              MO Center= -1.7D+00,  6.2D-01,  6.2D-01, r^2= 3.9D+00
   Bfn.  Coefficient  Atom+Function         Bfn.  Coefficient  Atom+Function  
  ----- ------------  ---------------      ----- ------------  ---------------
     3      0.432117   1 O  px                7      0.356353   1 O  px        
   112      0.199939  14 H  s                 4     -0.196726   1 O  py        
     5      0.196311   1 O  pz                8     -0.164093   1 O  py        
     9      0.158495   1 O  pz              111      0.154909  14 H  s         
   114     -0.141846  15 H  s                77      0.127131   9 C  pz        

 Vector   44  Occ=1.000000D+00  E=-2.556498D-01
              MO Center= -9.6D-03,  1.7D+00, -9.7D-02, r^2= 4.3D+00
   Bfn.  Coefficient  Atom+Function         Bfn.  Coefficient  Atom+Function  
  ----- ------------  ---------------      ----- ------------  ---------------
    94      0.378218  11 O  py               98      0.279169  11 O  py        
   102      0.274697  12 O  px               93      0.246115  11 O  px        
   106      0.228715  12 O  px                5     -0.211136   1 O  pz        
   103     -0.208976  12 O  py               97      0.192728  11 O  px        
     9     -0.169660   1 O  pz              107     -0.132034  12 O  py        

 Vector   45  Occ=1.000000D+00  E=-2.520279D-01
              MO Center=  4.6D-01,  6.4D-02,  1.4D-01, r^2= 5.5D+00
   Bfn.  Coefficient  Atom+Function         Bfn.  Coefficient  Atom+Function  
  ----- ------------  ---------------      ----- ------------  ---------------
    77     -0.258286   9 C  pz               41      0.253331   5 C  pz        
    68     -0.249714   8 C  pz              104      0.208382  12 O  pz        
    81     -0.207202   9 C  pz               45      0.187227   5 C  pz        
    72     -0.185421   8 C  pz              108      0.161737  12 O  pz        
     3      0.158212   1 O  px               32      0.150983   4 N  pz        

 Vector   46  Occ=1.000000D+00  E=-1.581979D-01
              MO Center=  8.9D-01,  1.1D+00, -7.5D-02, r^2= 4.2D+00
   Bfn.  Coefficient  Atom+Function         Bfn.  Coefficient  Atom+Function  
  ----- ------------  ---------------      ----- ------------  ---------------
    86      0.434175  10 N  pz               90      0.326492  10 N  pz        
   104     -0.319290  12 O  pz              108     -0.292754  12 O  pz        
    95     -0.288964  11 O  pz               99     -0.258154  11 O  pz        
    72     -0.233211   8 C  pz               68     -0.226484   8 C  pz        
    41      0.187747   5 C  pz               45      0.157907   5 C  pz        

 Vector   47  Occ=0.000000D+00  E= 3.796821D-02
              MO Center=  6.1D-01, -1.3D+00, -9.5D-03, r^2= 3.5D+00
   Bfn.  Coefficient  Atom+Function         Bfn.  Coefficient  Atom+Function  
  ----- ------------  ---------------      ----- ------------  ---------------
    45      0.486733   5 C  pz               41      0.406315   5 C  pz        
    63     -0.402392   7 N  pz               36     -0.356274   4 N  pz        
    59     -0.318613   7 N  pz               15      0.313298   2 C  s         
   124     -0.311595  20 H  s               122      0.309460  19 H  s         
    32     -0.288777   4 N  pz               81      0.275421   9 C  pz        

 Vector   48  Occ=0.000000D+00  E= 8.120910D-02
              MO Center=  1.3D+00, -7.3D-02,  1.6D-01, r^2= 3.2D+00
   Bfn.  Coefficient  Atom+Function         Bfn.  Coefficient  Atom+Function  
  ----- ------------  ---------------      ----- ------------  ---------------
    72      0.580203   8 C  pz               81     -0.571475   9 C  pz        
    77     -0.403079   9 C  pz               63     -0.373769   7 N  pz        
    68      0.360882   8 C  pz               90      0.277190  10 N  pz        
    15     -0.261487   2 C  s                59     -0.258079   7 N  pz        
    79      0.258302   9 C  px              118      0.258691  17 H  s         

 Vector   49  Occ=0.000000D+00  E= 1.101205D-01
              MO Center= -1.3D+00, -2.1D+00, -2.7D-01, r^2= 5.8D+00
   Bfn.  Coefficient  Atom+Function         Bfn.  Coefficient  Atom+Function  
  ----- ------------  ---------------      ----- ------------  ---------------
    51      1.452458   6 C  s                24      0.924371   3 C  s         
   116     -0.809446  16 H  s               124     -0.784228  20 H  s         
   114     -0.775019  15 H  s               122     -0.773696  19 H  s         
    15      0.724172   2 C  s               120     -0.632660  18 H  s         
   112     -0.489871  14 H  s                42     -0.410193   5 C  s         

 Vector   50  Occ=0.000000D+00  E= 1.338208D-01
              MO Center= -1.8D-01,  5.2D-01, -8.2D-02, r^2= 7.2D+00
   Bfn.  Coefficient  Atom+Function         Bfn.  Coefficient  Atom+Function  
  ----- ------------  ---------------      ----- ------------  ---------------
    87      0.862336  10 N  s               126      0.707286  21 H  s         
    96     -0.637114  11 O  s               118      0.620425  17 H  s         
    33     -0.559869   4 N  s                 6     -0.511562   1 O  s         
   110      0.456748  13 H  s               124     -0.418356  20 H  s         
   120      0.394966  18 H  s                70     -0.367936   8 C  px        

 Vector   51  Occ=0.000000D+00  E= 1.457222D-01
              MO Center= -9.1D-01, -1.2D+00, -2.2D-01, r^2= 6.9D+00
   Bfn.  Coefficient  Atom+Function         Bfn.  Coefficient  Atom+Function  
  ----- ------------  ---------------      ----- ------------  ---------------
   116      0.906102  16 H  s               124     -0.839805  20 H  s         
   114     -0.815418  15 H  s                87     -0.790106  10 N  s         
    15      0.744996   2 C  s                26      0.606809   3 C  py        
    52     -0.533591   6 C  px              120      0.534082  18 H  s         
   118     -0.456156  17 H  s                33     -0.432907   4 N  s         

 Vector   52  Occ=0.000000D+00  E= 1.568313D-01
              MO Center= -2.9D-01, -1.2D+00, -2.1D-01, r^2= 8.8D+00
   Bfn.  Coefficient  Atom+Function         Bfn.  Coefficient  Atom+Function  
  ----- ------------  ---------------      ----- ------------  ---------------
   120      1.109556  18 H  s                87     -0.772985  10 N  s         
   118      0.683751  17 H  s               122     -0.578734  19 H  s         
    33     -0.573331   4 N  s                 6      0.546501   1 O  s         
    54     -0.543221   6 C  pz               51     -0.455083   6 C  s         
   116     -0.455657  16 H  s                26     -0.441109   3 C  py        

 Vector   53  Occ=0.000000D+00  E= 1.646042D-01
              MO Center= -1.8D+00, -9.3D-01, -3.6D-01, r^2= 8.3D+00
   Bfn.  Coefficient  Atom+Function         Bfn.  Coefficient  Atom+Function  
  ----- ------------  ---------------      ----- ------------  ---------------
   112      1.429579  14 H  s                51      1.240935   6 C  s         
    15     -1.052442   2 C  s                24     -0.803180   3 C  s         
    16      0.783038   2 C  px              122     -0.771689  19 H  s         
   124     -0.582224  20 H  s               118      0.517637  17 H  s         
    25     -0.488227   3 C  px               87     -0.401225  10 N  s         

 Vector   54  Occ=0.000000D+00  E= 1.697962D-01
              MO Center= -3.4D-01, -3.5D-01, -2.1D-01, r^2= 9.3D+00
   Bfn.  Coefficient  Atom+Function         Bfn.  Coefficient  Atom+Function  
  ----- ------------  ---------------      ----- ------------  ---------------
    24      1.666577   3 C  s               126      1.061555  21 H  s         
   118     -1.024605  17 H  s               114      0.802277  15 H  s         
    15     -0.706671   2 C  s                69     -0.707016   8 C  s         
    17      0.636419   2 C  py              122     -0.598386  19 H  s         
    33     -0.531713   4 N  s                70     -0.485505   8 C  px        

 Vector   55  Occ=0.000000D+00  E= 1.771114D-01
              MO Center= -1.5D-01, -8.3D-02,  2.3D-01, r^2= 1.0D+01
   Bfn.  Coefficient  Atom+Function         Bfn.  Coefficient  Atom+Function  
  ----- ------------  ---------------      ----- ------------  ---------------
   126      1.204331  21 H  s                69     -0.992785   8 C  s         
   112      0.779761  14 H  s                 6      0.638419   1 O  s         
    17     -0.573923   2 C  py              110     -0.504511  13 H  s         
    71     -0.487418   8 C  py               25      0.482911   3 C  px        
   120     -0.461601  18 H  s               114     -0.448546  15 H  s         

 Vector   56  Occ=0.000000D+00  E= 1.842136D-01
              MO Center=  1.5D-02, -5.7D-01, -2.5D-01, r^2= 7.7D+00
   Bfn.  Coefficient  Atom+Function         Bfn.  Coefficient  Atom+Function  
  ----- ------------  ---------------      ----- ------------  ---------------
    33      1.328521   4 N  s                78     -1.027420   9 C  s         
    42     -0.963447   5 C  s                24     -0.750177   3 C  s         
   116      0.703216  16 H  s                87      0.681636  10 N  s         
    60      0.642593   7 N  s               120      0.588014  18 H  s         
    51      0.558993   6 C  s                53      0.537983   6 C  py        

 Vector   57  Occ=0.000000D+00  E= 1.997159D-01
              MO Center=  5.2D-02, -2.7D-01, -1.0D-01, r^2= 1.0D+01
   Bfn.  Coefficient  Atom+Function         Bfn.  Coefficient  Atom+Function  
  ----- ------------  ---------------      ----- ------------  ---------------
    24      1.374098   3 C  s               126     -1.131412  21 H  s         
    87      0.881526  10 N  s                69      0.807778   8 C  s         
    15     -0.773760   2 C  s               112      0.757368  14 H  s         
   118     -0.728950  17 H  s               120      0.713740  18 H  s         
    78     -0.683320   9 C  s                80     -0.609226   9 C  py        

 Vector   58  Occ=0.000000D+00  E= 2.214952D-01
              MO Center= -7.0D-01, -1.4D+00, -5.6D-01, r^2= 7.1D+00
   Bfn.  Coefficient  Atom+Function         Bfn.  Coefficient  Atom+Function  
  ----- ------------  ---------------      ----- ------------  ---------------
    25      1.082905   3 C  px               51      1.020149   6 C  s         
   122     -0.852161  19 H  s                15      0.762897   2 C  s         
   116      0.695671  16 H  s               124      0.698255  20 H  s         
    34      0.685238   4 N  px               33     -0.665445   4 N  s         
   112     -0.633152  14 H  s                52      0.618642   6 C  px        

 Vector   59  Occ=0.000000D+00  E= 2.226626D-01
              MO Center= -6.2D-01, -4.5D-01, -2.6D-01, r^2= 7.2D+00
   Bfn.  Coefficient  Atom+Function         Bfn.  Coefficient  Atom+Function  
  ----- ------------  ---------------      ----- ------------  ---------------
    42      1.133144   5 C  s                15     -0.905491   2 C  s         
    26      0.871459   3 C  py              116      0.802912  16 H  s         
    53     -0.789087   6 C  py               17     -0.740036   2 C  py        
   118     -0.717234  17 H  s                33     -0.698354   4 N  s         
     6      0.664554   1 O  s               120     -0.655716  18 H  s         

 Vector   60  Occ=0.000000D+00  E= 2.353843D-01
              MO Center= -5.8D-01, -7.0D-01,  1.3D-01, r^2= 8.5D+00
   Bfn.  Coefficient  Atom+Function         Bfn.  Coefficient  Atom+Function  
  ----- ------------  ---------------      ----- ------------  ---------------
    51      1.435708   6 C  s                42     -1.163063   5 C  s         
   114      0.877949  15 H  s                80     -0.835494   9 C  py        
   124     -0.835711  20 H  s                24     -0.802712   3 C  s         
   116      0.695923  16 H  s               110     -0.652646  13 H  s         
    18     -0.648048   2 C  pz               89     -0.585604  10 N  py        

 Vector   61  Occ=0.000000D+00  E= 2.415627D-01
              MO Center= -1.3D+00, -8.6D-01, -1.5D-01, r^2= 5.5D+00
   Bfn.  Coefficient  Atom+Function         Bfn.  Coefficient  Atom+Function  
  ----- ------------  ---------------      ----- ------------  ---------------
    15      2.081677   2 C  s                24     -1.819467   3 C  s         
    27     -1.388881   3 C  pz               16      1.196555   2 C  px        
    42      1.147300   5 C  s               122     -0.643564  19 H  s         
    34     -0.604250   4 N  px               51     -0.571427   6 C  s         
    54     -0.543248   6 C  pz               53     -0.510612   6 C  py        

 Vector   62  Occ=0.000000D+00  E= 2.566433D-01
              MO Center=  1.2D-01, -8.0D-01, -2.2D-01, r^2= 7.4D+00
   Bfn.  Coefficient  Atom+Function         Bfn.  Coefficient  Atom+Function  
  ----- ------------  ---------------      ----- ------------  ---------------
    60      1.288442   7 N  s                71      1.115987   8 C  py        
    33     -0.893375   4 N  s               116     -0.891769  16 H  s         
   122      0.781858  19 H  s                44      0.733897   5 C  py        
    25      0.649236   3 C  px               54      0.635015   6 C  pz        
    27     -0.586741   3 C  pz               26     -0.554055   3 C  py        

 Vector   63  Occ=0.000000D+00  E= 2.679318D-01
              MO Center=  7.3D-02, -9.2D-01,  8.0D-02, r^2= 8.1D+00
   Bfn.  Coefficient  Atom+Function         Bfn.  Coefficient  Atom+Function  
  ----- ------------  ---------------      ----- ------------  ---------------
    42      2.052087   5 C  s                78      0.967704   9 C  s         
   124     -0.893103  20 H  s                52     -0.849791   6 C  px        
   114      0.841482  15 H  s                33     -0.802704   4 N  s         
    53     -0.806141   6 C  py               60     -0.732509   7 N  s         
    71     -0.579678   8 C  py              105     -0.567984  12 O  s         

 Vector   64  Occ=0.000000D+00  E= 3.023917D-01
              MO Center= -2.1D-01, -6.0D-01,  1.3D-01, r^2= 8.3D+00
   Bfn.  Coefficient  Atom+Function         Bfn.  Coefficient  Atom+Function  
  ----- ------------  ---------------      ----- ------------  ---------------
    44      1.901096   5 C  py               78      1.905451   9 C  s         
    60     -1.846074   7 N  s                51      1.791012   6 C  s         
    43      1.283198   5 C  px               53      1.279985   6 C  py        
    34     -0.965475   4 N  px               71     -0.913001   8 C  py        
   110      0.863891  13 H  s                24     -0.784298   3 C  s         

 Vector   65  Occ=0.000000D+00  E= 3.320840D-01
              MO Center=  5.5D-01, -1.7D-01, -1.6D-01, r^2= 4.8D+00
   Bfn.  Coefficient  Atom+Function         Bfn.  Coefficient  Atom+Function  
  ----- ------------  ---------------      ----- ------------  ---------------
    42      2.238552   5 C  s                78     -2.076942   9 C  s         
    44      1.668758   5 C  py               35      1.532466   4 N  py        
    60     -1.510636   7 N  s                89     -0.907184  10 N  py        
    61      0.777238   7 N  px               79      0.775372   9 C  px        
   118      0.709717  17 H  s                24     -0.706021   3 C  s         

 Vector   66  Occ=0.000000D+00  E= 3.410077D-01
              MO Center= -8.2D-01,  2.3D-01,  1.4D-01, r^2= 7.0D+00
   Bfn.  Coefficient  Atom+Function         Bfn.  Coefficient  Atom+Function  
  ----- ------------  ---------------      ----- ------------  ---------------
    44      1.646289   5 C  py               78      1.380588   9 C  s         
   110     -1.312110  13 H  s                60     -1.200122   7 N  s         
    51      1.143379   6 C  s                25     -0.965011   3 C  px        
    34     -0.919225   4 N  px               43      0.880579   5 C  px        
    18      0.864540   2 C  pz               53      0.863871   6 C  py        

 Vector   67  Occ=0.000000D+00  E= 3.844437D-01
              MO Center=  8.0D-01, -2.5D-01,  2.1D-02, r^2= 5.8D+00
   Bfn.  Coefficient  Atom+Function         Bfn.  Coefficient  Atom+Function  
  ----- ------------  ---------------      ----- ------------  ---------------
    33      1.790809   4 N  s                69     -1.600696   8 C  s         
    44     -1.421158   5 C  py               79      1.261962   9 C  px        
    88     -1.213009  10 N  px               43      1.023023   5 C  px        
    52     -0.871162   6 C  px               34      0.855106   4 N  px        
    78      0.823218   9 C  s                80      0.775696   9 C  py        

 Vector   68  Occ=0.000000D+00  E= 4.060803D-01
              MO Center=  1.1D+00, -4.9D-01,  1.3D-01, r^2= 5.8D+00
   Bfn.  Coefficient  Atom+Function         Bfn.  Coefficient  Atom+Function  
  ----- ------------  ---------------      ----- ------------  ---------------
    69      4.106963   8 C  s                80      3.278408   9 C  py        
    70     -2.936884   8 C  px               78     -2.335082   9 C  s         
    79     -2.285177   9 C  px               60     -2.065144   7 N  s         
    87     -1.667819  10 N  s                43      1.494427   5 C  px        
    89      1.244846  10 N  py               72     -1.144818   8 C  pz        

 Vector   69  Occ=0.000000D+00  E= 4.901153D-01
              MO Center=  8.2D-01, -5.9D-01,  4.3D-02, r^2= 5.4D+00
   Bfn.  Coefficient  Atom+Function         Bfn.  Coefficient  Atom+Function  
  ----- ------------  ---------------      ----- ------------  ---------------
    80      2.555065   9 C  py               71     -2.273243   8 C  py        
    43     -2.010089   5 C  px               79      1.562857   9 C  px        
    34      1.525526   4 N  px               87     -1.344142  10 N  s         
    35      1.202181   4 N  py               61     -1.195512   7 N  px        
    24      1.144433   3 C  s                62     -1.148985   7 N  py        

 Vector   70  Occ=0.000000D+00  E= 5.331152D-01
              MO Center=  5.1D-02, -8.0D-01,  1.2D-01, r^2= 4.7D+00
   Bfn.  Coefficient  Atom+Function         Bfn.  Coefficient  Atom+Function  
  ----- ------------  ---------------      ----- ------------  ---------------
    45      0.533348   5 C  pz               16      0.502379   2 C  px        
    41     -0.479627   5 C  pz               81      0.399528   9 C  pz        
    27      0.397425   3 C  pz               77     -0.382309   9 C  pz        
    68     -0.311364   8 C  pz               12     -0.300166   2 C  px        
    80      0.301356   9 C  py               52     -0.287889   6 C  px        

 Vector   71  Occ=0.000000D+00  E= 5.503698D-01
[...]
          29     0.00065    -0.00006    -0.00002    -0.00005     0.00005     0.00002
          30    -0.00207     0.00012    -0.00006     0.00003     0.00002     0.00003
          31     0.00601    -0.00033     0.00002    -0.00019    -0.00012    -0.00001
          32    -0.00093     0.00027    -0.00002     0.00009    -0.00038    -0.00006
          33    -0.00185     0.00009    -0.00004     0.00005    -0.00011    -0.00003
          34     0.00302    -0.00022     0.00015    -0.00008     0.00005     0.00000
          35     0.00113    -0.00004     0.00011     0.00000     0.00009     0.00002
          36     0.00062    -0.00003     0.00002     0.00001     0.00001    -0.00002
          37     0.58727    -0.07775     0.02965    -0.04229    -0.00075    -0.00017
          38     0.61143    -0.09004     0.02837    -0.04054    -0.00354    -0.00007
          39    -0.42900     0.05600    -0.01570     0.02084     0.00113     0.00031
          40    -0.10821    -0.84251    -0.09467     0.15151    -0.04780    -0.00434
          41     0.02141     0.01243    -0.00512     0.00833     0.00129     0.00039
          42    -0.03956    -0.39802    -0.03368     0.05371    -0.01731    -0.00185
          43     0.00822     0.03276    -0.01558     0.02684     0.00050     0.00148
          44    -0.06270    -0.15144     0.36744    -0.59871     0.02101    -0.00686
          45     0.08550     0.13029    -0.31768     0.51621    -0.02049     0.00448
          46    -0.00626     0.01596    -0.00106     0.00290    -0.20931    -0.02188
          47     0.00074     0.03570     0.00694    -0.00066    -0.69765    -0.07574
          48     0.00574     0.01784     0.00336    -0.00032    -0.43211    -0.04624
          49     0.00456    -0.00155     0.00095    -0.00236     0.00458     0.00060
          50     0.00328    -0.01447    -0.03476     0.05154     0.36267     0.04974
          51     0.00165     0.01050     0.02510    -0.03858    -0.26639    -0.03607
          52    -0.00098    -0.00078     0.18773     0.11618    -0.00009     0.06425
          53     0.00074     0.00097    -0.20197    -0.12545    -0.00263    -0.06344
          54    -0.00032    -0.00036     0.09958     0.06235     0.00322     0.00827
          55     0.00023    -0.00014    -0.12483    -0.07911    -0.01707     0.14503
          56    -0.00030     0.00005    -0.11065    -0.06946    -0.01296     0.11145
          57     0.00337    -0.00008    -0.58972    -0.37088    -0.06703     0.56540
          58     0.00306     0.00099    -0.40446    -0.23930     0.07075    -0.62749
          59    -0.00113     0.00034    -0.02469    -0.01494     0.00535    -0.04389
          60    -0.00266    -0.00073     0.26193     0.15501    -0.04106     0.36709
          61     0.00016    -0.00020    -0.00023    -0.00036     0.00013    -0.00016
          62     0.00078    -0.00011     0.00043     0.00009    -0.00021    -0.00006
          63     0.00006     0.00009    -0.00012    -0.00019     0.00009     0.00041

                   61          62          63
 
 P.Frequency     3182.86     3184.46     3360.47
 
           1     0.00006    -0.00013     0.00002
           2    -0.00002     0.00015     0.00003
           3    -0.00008     0.00016    -0.00001
           4    -0.00005     0.00031    -0.00000
           5     0.00207    -0.00492    -0.00000
           6    -0.00146     0.00352    -0.00003
           7     0.00353    -0.00804     0.00003
           8     0.03409    -0.07615    -0.00003
           9    -0.01076     0.02201    -0.00000
          10    -0.00006    -0.00001     0.00064
          11    -0.00009    -0.00064     0.00068
          12    -0.00005     0.00009     0.00023
          13    -0.00143    -0.00140     0.00188
          14    -0.00003     0.00024     0.00111
          15    -0.00067    -0.00037     0.00065
          16    -0.05989    -0.02743    -0.00004
          17     0.04315     0.01954    -0.00009
          18    -0.02526    -0.01045    -0.00002
          19     0.00023     0.00016     0.00036
          20    -0.00002     0.00008     0.00139
          21     0.00012     0.00008     0.00004
          22     0.00007     0.00013    -0.07509
          23    -0.00009    -0.00002    -0.03227
          24     0.00003     0.00008    -0.02753
          25    -0.00025     0.00039     0.00382
          26    -0.00000    -0.00003    -0.00248
          27     0.00001    -0.00011     0.00155
          28    -0.00002     0.00008    -0.00066
          29    -0.00010     0.00005    -0.00028
          30    -0.00002     0.00011    -0.00014
          31     0.00013    -0.00026     0.00005
          32     0.00036    -0.00070     0.00015
          33     0.00008    -0.00022    -0.00003
          34    -0.00000    -0.00003     0.00021
          35     0.00001     0.00001    -0.00018
          36    -0.00001     0.00001     0.00008
          37    -0.00145     0.00252    -0.00034
          38    -0.00325     0.00554    -0.00049
          39    -0.00044     0.00162     0.00028
          40     0.00266    -0.00760    -0.00021
          41    -0.00032     0.00097     0.00007
          42     0.00074    -0.00189     0.00005
          43    -0.00015    -0.00069     0.00001
          44    -0.01772     0.04355    -0.00018
          45     0.01783    -0.04199     0.00013
          46    -0.04075     0.09731    -0.00024
          47    -0.13974     0.32762     0.00021
          48    -0.08924     0.21044     0.00005
          49    -0.00290     0.00620    -0.00026
          50    -0.27604     0.59882     0.00039
          51     0.21817    -0.47295    -0.00026
          52     0.50708     0.22905    -0.00000
          53    -0.57675    -0.26040     0.00024
          54     0.26439     0.11930    -0.00008
          55     0.02564     0.00979    -0.00032
          56     0.04423     0.01876    -0.00022
          57     0.17723     0.07394    -0.00035
          58     0.19500     0.09618    -0.00050
          59     0.02345     0.01126    -0.00020
          60    -0.13563    -0.06638     0.00002
          61     0.00057    -0.00011     0.81913
          62     0.00038    -0.00006     0.37724
          63     0.00009     0.00002     0.29999



 ----------------------------------------------------------------------------
 Normal Eigenvalue ||    Projected Derivative Dipole Moments (debye/angs)
  Mode   [cm**-1]  ||      [d/dqX]             [d/dqY]           [d/dqZ]
 ------ ---------- || ------------------ ------------------ -----------------
    1       -0.000 ||       0.041              -0.138            -0.064
    2       -0.000 ||      -0.074               0.361             0.083
    3       -0.000 ||       0.164              -0.032            -0.062
    4        0.000 ||       0.363              -0.005            -0.160
    5        0.000 ||      -0.006               0.167            -0.577
    6        0.000 ||       0.357              -0.050             0.083
    7       36.395 ||       0.182              -0.186             0.236
    8       74.192 ||      -0.325               0.190            -0.213
    9       96.598 ||       0.017              -0.081             0.204
   10      162.684 ||      -0.144               0.195            -0.042
   11      196.317 ||       0.028              -0.059            -0.132
   12      217.268 ||       0.023              -0.246            -0.273
   13      248.658 ||       0.969               0.272            -0.148
   14      255.500 ||      -0.236              -0.013            -0.264
   15      309.942 ||      -0.580               0.341             0.482
   16      344.502 ||      -0.260              -0.156             0.332
   17      367.942 ||      -0.116              -0.174             0.059
   18      382.300 ||       0.519              -0.467             0.175
   19      434.601 ||      -0.560              -0.857             0.142
   20      517.916 ||       0.012               0.121             0.129
   21      575.469 ||      -0.354              -0.306            -0.152
   22      643.845 ||       0.568               0.373             0.159
   23      664.139 ||      -0.239              -0.148             0.155
   24      701.085 ||       0.052               0.183             0.461
   25      715.547 ||       0.130              -0.064            -0.377
   26      757.917 ||      -0.219               0.026             0.027
   27      807.118 ||      -0.405               0.056             0.965
   28      894.477 ||       0.698              -0.434            -0.283
   29      914.155 ||      -2.356               0.682            -0.914
   30      966.678 ||       0.232              -0.166             0.249
   31     1011.610 ||      -0.782               0.737            -0.344
   32     1036.779 ||       0.334              -0.016             0.200
   33     1087.363 ||       1.366              -1.605            -0.129
   34     1097.049 ||       0.221              -0.248            -0.529
   35     1141.654 ||      -0.334               0.865             0.313
   36     1157.757 ||      -0.839              -1.154            -0.866
   37     1187.852 ||      -0.917               0.658            -0.343
   38     1249.960 ||      -1.904              -0.810             0.092
   39     1286.205 ||       1.391               0.506             0.005
   40     1301.998 ||       1.404               0.785             0.319
   41     1326.733 ||       0.909               0.182             0.327
   42     1378.172 ||      -0.875              -1.272            -0.259
   43     1412.062 ||      -1.222              -0.046            -0.021
   44     1431.504 ||       0.190              -0.408             0.527
   45     1449.751 ||       0.423              -0.256            -0.019
   46     1457.956 ||      -0.203               0.193             0.259
   47     1472.750 ||       0.859              -1.063            -0.351
   48     1497.398 ||      -0.378              -0.215            -1.164
   49     1505.241 ||      -0.232               0.170             0.579
   50     1518.518 ||       0.308              -0.290            -0.917
   51     1536.556 ||      -0.820               1.105             0.476
   52     1560.116 ||       0.076              -0.524            -0.074
   53     1562.192 ||      -0.511              -0.495            -0.151
   54     1589.452 ||      -0.769              -0.682            -0.194
   55     2799.355 ||       5.657               2.462            -1.439
   56     2976.805 ||       0.945               0.092             0.712
   57     3047.323 ||       0.693               0.152             0.583
   58     3048.420 ||      -0.236               1.131            -0.541
   59     3103.048 ||       0.493               0.302             0.655
   60     3112.888 ||       0.314               0.093            -0.463
   61     3182.863 ||      -0.405               0.363            -0.210
   62     3184.459 ||      -0.036               0.038             0.128
   63     3360.467 ||      -0.069              -0.231            -0.006
 ----------------------------------------------------------------------------



  
  
 ----------------------------------------------------------------------------
 Normal Eigenvalue ||           Projected Infra Red Intensities
  Mode   [cm**-1]  || [atomic units] [(debye/angs)**2] [(KM/mol)] [arbitrary]
 ------ ---------- || -------------- ----------------- ---------- -----------
    1       -0.000 ||    0.001078           0.025         1.051       0.163
    2       -0.000 ||    0.006185           0.143         6.030       0.935
    3       -0.000 ||    0.001378           0.032         1.344       0.208
    4        0.000 ||    0.006840           0.158         6.668       1.034
    5        0.000 ||    0.015634           0.361        15.241       2.363
    6        0.000 ||    0.005931           0.137         5.782       0.896
    7       36.395 ||    0.005359           0.124         5.224       0.810
    8       74.192 ||    0.008106           0.187         7.902       1.225
    9       96.598 ||    0.002091           0.048         2.038       0.316
   10      162.684 ||    0.002631           0.061         2.565       0.398
   11      196.317 ||    0.000945           0.022         0.921       0.143
   12      217.268 ||    0.005874           0.136         5.726       0.888
   13      248.658 ||    0.044880           1.035        43.751       6.783
   14      255.500 ||    0.005426           0.125         5.290       0.820
   15      309.942 ||    0.029722           0.686        28.975       4.492
   16      344.502 ||    0.008763           0.202         8.543       1.324
   17      367.942 ||    0.002053           0.047         2.001       0.310
   18      382.300 ||    0.022481           0.519        21.916       3.398
   19      434.601 ||    0.046268           1.067        45.104       6.993
   20      517.916 ||    0.001369           0.032         1.334       0.207
   21      575.469 ||    0.010487           0.242        10.224       1.585
   22      643.845 ||    0.021128           0.487        20.597       3.193
   23      664.139 ||    0.004469           0.103         4.357       0.675
   24      701.085 ||    0.010761           0.248        10.490       1.626
   25      715.547 ||    0.007069           0.163         6.891       1.068
   26      757.917 ||    0.002146           0.050         2.092       0.324
   27      807.118 ||    0.047651           1.099        46.452       7.202
   28      894.477 ||    0.032750           0.756        31.926       4.949
   29      914.155 ||    0.297024           6.853       289.554      44.890
   30      966.678 ||    0.006197           0.143         6.041       0.937
   31     1011.610 ||    0.055202           1.274        53.814       8.343
   32     1036.779 ||    0.006591           0.152         6.426       0.996
   33     1087.363 ||    0.193357           4.461       188.494      29.222
   34     1097.049 ||    0.016929           0.391        16.503       2.558
   35     1141.654 ||    0.041497           0.957        40.454       6.272
   36     1157.757 ||    0.120702           2.785       117.666      18.242
   37     1187.852 ||    0.060317           1.392        58.800       9.116
   38     1249.960 ||    0.186018           4.292       181.339      28.113
   39     1286.205 ||    0.094923           2.190        92.536      14.346
   40     1301.998 ||    0.116616           2.690       113.683      17.624
   41     1326.733 ||    0.041866           0.966        40.813       6.327
   42     1378.172 ||    0.106304           2.453       103.631      16.066
   43     1412.062 ||    0.064880           1.497        63.248       9.805
   44     1431.504 ||    0.020829           0.481        20.305       3.148
   45     1449.751 ||    0.010630           0.245        10.362       1.606
   46     1457.956 ||    0.006324           0.146         6.165       0.956
   47     1472.750 ||    0.086316           1.991        84.146      13.045
   48     1497.398 ||    0.066939           1.544        65.256      10.117
   49     1505.241 ||    0.018133           0.418        17.677       2.740
   50     1518.518 ||    0.044231           1.020        43.119       6.685
   51     1536.556 ||    0.091855           2.119        89.544      13.882
   52     1560.116 ||    0.012392           0.286        12.080       1.873
   53     1562.192 ||    0.022958           0.530        22.381       3.470
   54     1589.452 ||    0.047407           1.094        46.215       7.165
   55     2799.355 ||    1.739409          40.130      1695.662     262.880
   56     2976.805 ||    0.061053           1.409        59.517       9.227
   57     3047.323 ||    0.036569           0.844        35.649       5.527
   58     3048.420 ||    0.070539           1.627        68.765      10.661
   59     3103.048 ||    0.033060           0.763        32.228       4.996
   60     3112.888 ||    0.013956           0.322        13.605       2.109
   61     3182.863 ||    0.014707           0.339        14.337       2.223
   62     3184.459 ||    0.000831           0.019         0.810       0.126
   63     3360.467 ||    0.002519           0.058         2.455       0.381
 ----------------------------------------------------------------------------



 vib:animation  F

 Task  times  cpu:    18109.5s     wall:    10600.7s


                                NWChem Input Module
                                -------------------


 Summary of allocated global arrays
-----------------------------------
  No active global arrays



                         GA Statistics for process    0
                         ------------------------------

       create   destroy   get      put      acc     scatter   gather  read&inc
calls: 7.21e+04 7.21e+04 5.76e+07 2.55e+05 3.89e+07    0        0     9.44e+05 
number of processes/call 0.00e+00 0.00e+00 0.00e+00 0.00e+00 0.00e+00
bytes total:             3.23e+10 3.15e+09 1.69e+10 0.00e+00 0.00e+00 7.55e+06
bytes remote:            1.13e+10 1.06e+09 3.84e+09 0.00e+00 0.00e+00 0.00e+00
Max memory consumed for GA by this process: 2444904 bytes

MA_summarize_allocated_blocks: starting scan ...
MA_summarize_allocated_blocks: scan completed: 0 heap blocks, 0 stack blocks
MA usage statistics:

	allocation statistics:
					      heap	     stack
					      ----	     -----
	current number of blocks	         0	         0
	maximum number of blocks	        25	        57
	current total bytes		         0	         0
	maximum total bytes		   4185608	  54271208
	maximum total K-bytes		      4186	     54272
	maximum total M-bytes		         5	        55


                                     CITATION
                                     --------
                Please cite the following reference when publishing
                           results obtained with NWChem:

                 M. Valiev, E.J. Bylaska, N. Govind, K. Kowalski,
              T.P. Straatsma, H.J.J. van Dam, D. Wang, J. Nieplocha,
                        E. Apra, T.L. Windus, W.A. de Jong
                 "NWChem: a comprehensive and scalable open-source
                  solution for large scale molecular simulations"
                      Comput. Phys. Commun. 181, 1477 (2010)
                           doi:10.1016/j.cpc.2010.04.018

                                      AUTHORS
                                      -------
     E. Apra, E. J. Bylaska, N. Govind, K. Kowalski, M. Valiev, W. A. de Jong,
      T. P. Straatsma, H. J. J. van Dam, D. Wang, T. L. Windus, N. P. Bauman,
       A. Panyala, J. Hammond, J. Autschbach, K. Bhaskaran-Nair, J. Brabec,
    K. Lopata, S. A. Fischer, S. Krishnamoorthy, M. Jacquelin, W. Ma, M. Klemm,
       O. Villa, Y. Chen, V. Anisimov, F. Aquino, S. Hirata, M. T. Hackler,
           Eric Hermes, L. Jensen, J. E. Moore, J. C. Becca, V. Konjkov,
            D. Mejia-Rodriguez, T. Risthaus, M. Malagoli, A. Marenich,
   A. Otero-de-la-Roza, J. Mullin, P. Nichols, R. Peverati, J. Pittner, Y. Zhao,
        P.-D. Fan, A. Fonari, M. J. Williamson, R. J. Harrison, J. R. Rehr,
      M. Dupuis, D. Silverstein, D. M. A. Smith, J. Nieplocha, V. Tipparaju,
      M. Krishnan, B. E. Van Kuiken, A. Vazquez-Mayagoitia, M. Swart, Q. Wu,
   T. Van Voorhis, A. A. Auer, M. Nooijen, L. D. Crosby, E. Brown, G. Cisneros,
     G. I. Fann, H. Fruchtl, J. Garza, K. Hirao, R. A. Kendall, J. A. Nichols,
       K. Tsemekhman, K. Wolinski, J. Anchell, D. E. Bernholdt, P. Borowski,
       T. Clark, D. Clerc, H. Dachsel, M. J. O. Deegan, K. Dyall, D. Elwood,
      E. Glendening, M. Gutowski, A. C. Hess, J. Jaffe, B. G. Johnson, J. Ju,
        R. Kobayashi, R. Kutteh, Z. Lin, R. Littlefield, X. Long, B. Meng,
      T. Nakajima, S. Niu, L. Pollack, M. Rosing, K. Glaesemann, G. Sandrone,
      M. Stave, H. Taylor, G. Thomas, J. H. van Lenthe, A. T. Wong, Z. Zhang.

 Total times  cpu:    18109.6s     wall:    10600.7s
[0] ARMCI Warning: Freed 1 leaked allocations
